                         Program Version 5.0.4 -  RELEASE  -
|  1> !r2scan CPCM(Acetonitrile)
|  2> %TDDFT
|  3>    NROOTS   30 end
|  4> %maxcore 2000
|  5> %pal nprocs 28
|  6> end
|  7> *xyz 2 1
|  8> C       -1.561344248     -2.270815249     -0.089082421
|  9> C       -2.057386066     -3.500097029      0.304901994
| 10> C       -1.505151883     -4.126955110      1.417699714
| 11> C       -0.474574685     -3.498409795      2.099149147
| 12> H       -3.994836061      2.904772419     -0.277945043
| 13> H       -4.370862719      3.276482806      2.143730254
| 14> H       -2.723241059      2.325912023      3.783769903
| 15> H       -0.771824708      1.055718391      2.921491434
| 16> H        1.000827836      2.944876804     -1.319627948
| 17> H        4.200342829      4.608606703      1.022349866
| 18> H        4.082720987      2.607846394      2.479237963
| 19> H        3.822026314      0.802234639      3.683618596
| 20> H        3.203043925     -2.060625498     -4.613947210
| 21> H        2.904506020     -1.526382220     -0.357473515
| 22> C       -0.006071683     -2.261449827      1.667747264
| 23> C       -2.188152240      1.783931640      0.019164733
| 24> C       -3.296213313      2.507161859      0.449404582
| 25> C       -3.507034217      2.715142708      1.803833168
| 26> C       -2.596237359      2.189901670      2.715251103
| 27> C       -1.507055016      1.480214243      2.243767793
| 28> C        1.699518244      2.906068930     -0.488919674
| 29> C        2.606882667      3.924563469     -0.261670249
| 30> C        3.478690385      3.824687765      0.818086718
| 31> C        3.412324689      2.705016288      1.632778969
| 32> C        2.483574856      1.703593524      1.366977157
| 33> C        2.338286630      0.482713386      2.165750221
| 34> C        3.067415075      0.130643059      3.290500055
| 35> C        2.807420510     -1.078688286      3.956539351
| 36> C        1.791607340     -1.903024535      3.444458364
| 37> C        1.075462327     -1.518298470      2.321721270
| 38> H        1.134473985     -0.718557166     -4.858442643
| 39> C       -1.888555552      1.497392525     -1.387433646
| 40> C       -2.614735550      1.906536458     -2.494990261
| 41> C       -2.194258704      1.556969612     -3.789066385
| 42> C        0.908606264     -0.401464886     -2.746313369
| 43> C       -1.025049706      0.788377891     -3.913012951
| 44> C       -0.318858996      0.399676962     -2.785344702
| 45> C        1.546041053     -0.909778278     -3.873840863
| 46> C        2.703071690     -1.661221895     -3.737833245
| 47> C        3.209134639     -1.893884444     -2.462819626
| 48> C        2.543694773     -1.369492146     -1.369781950
| 49> H       -1.963129091     -1.746924529     -0.951508609
| 50> H       -1.872848437     -5.092276595      1.749430969
| 51> H       -0.031304942     -3.970659720      2.968609559
| 52> H       -3.494865094      2.527204447     -2.371262554
| 53> H       -0.696035606      0.475933258     -4.897471213
| 54> N       -1.288993698      1.271869334      0.929139978
| 55> N        1.623261359      1.812415802      0.296812273
| 56> H        4.111456291     -2.476162787     -2.310932055
| 57> H       -2.865365700     -3.955591000     -0.257254098
| 58> N        1.355510495     -0.338588668      1.698967427
| 59> N        1.417199280     -0.637139001     -1.488133217
| 60> H        2.624775362      4.782472094     -0.925018018
| 61> H        1.592965980     -2.858060361      3.917175531
| 62> N       -0.755243030      0.756562224     -1.544350408
| 63> N       -0.557861551     -1.649273874      0.563749470
| 64> Os       0.299200147      0.202336723      0.075601257
| 65> C        3.569800890     -1.467390843      5.147957877
| 66> C        2.959595491     -2.188110280      6.184734367
| 67> C        4.924357332     -1.126632041      5.276539879
| 68> C        3.672160331     -2.554470931      7.315060639
| 69> C        5.650154226     -1.496336811      6.397525981
| 70> C        5.018087636     -2.208414307      7.414561104
| 71> H        1.901837611     -2.431017079      6.135273435
| 72> H        5.437013427     -0.603185774      4.474348616
| 73> H        3.187619934     -3.095352553      8.120482423
| 74> H        6.702019615     -1.245393590      6.480079228
| 75> C       -2.950325084      1.982468248     -4.971924048
| 76> C       -2.289640113      2.307310589     -6.165765647
| 77> C       -4.349166134      2.075151684     -4.933522946
| 78> C       -2.997627305      2.718250733     -7.283808551
| 79> C       -5.068883812      2.473571780     -6.048695421
| 80> C       -4.387127288      2.797173994     -7.219853741
| 81> H       -1.204481941      2.284538054     -6.215679143
| 82> H       -4.892820040      1.790895376     -4.036760927
| 83> H       -2.478078011      2.987048032     -8.196982261
| 84> H       -6.151704933      2.523909551     -6.016715522
| 85> Br       5.998573389     -2.711265436      8.952105459
| 86> Br      -5.360657793      3.352647521     -8.743952176
| 87> endd                         ****END OF INPUT****

CARTESIAN COORDINATES (ANGSTROEM)
---------------------------------
  C     -1.561344   -2.270815   -0.089082
  C     -2.057386   -3.500097    0.304902
  C     -1.505152   -4.126955    1.417700
  C     -0.474575   -3.498410    2.099149
  H     -3.994836    2.904772   -0.277945
  H     -4.370863    3.276483    2.143730
  H     -2.723241    2.325912    3.783770
  H     -0.771825    1.055718    2.921491
  H      1.000828    2.944877   -1.319628
  H      4.200343    4.608607    1.022350
  H      4.082721    2.607846    2.479238
  H      3.822026    0.802235    3.683619
  H      3.203044   -2.060625   -4.613947
  H      2.904506   -1.526382   -0.357474
  C     -0.006072   -2.261450    1.667747
  C     -2.188152    1.783932    0.019165
  C     -3.296213    2.507162    0.449405
  C     -3.507034    2.715143    1.803833
  C     -2.596237    2.189902    2.715251
  C     -1.507055    1.480214    2.243768
  C      1.699518    2.906069   -0.488920
  C      2.606883    3.924563   -0.261670
  C      3.478690    3.824688    0.818087
  C      3.412325    2.705016    1.632779
  C      2.483575    1.703594    1.366977
  C      2.338287    0.482713    2.165750
  C      3.067415    0.130643    3.290500
  C      2.807421   -1.078688    3.956539
  C      1.791607   -1.903025    3.444458
  C      1.075462   -1.518298    2.321721
  H      1.134474   -0.718557   -4.858443
  C     -1.888556    1.497393   -1.387434
  C     -2.614736    1.906536   -2.494990
  C     -2.194259    1.556970   -3.789066
  C      0.908606   -0.401465   -2.746313
  C     -1.025050    0.788378   -3.913013
  C     -0.318859    0.399677   -2.785345
  C      1.546041   -0.909778   -3.873841
  C      2.703072   -1.661222   -3.737833
  C      3.209135   -1.893884   -2.462820
  C      2.543695   -1.369492   -1.369782
  H     -1.963129   -1.746925   -0.951509
  H     -1.872848   -5.092277    1.749431
  H     -0.031305   -3.970660    2.968610
  H     -3.494865    2.527204   -2.371263
  H     -0.696036    0.475933   -4.897471
  N     -1.288994    1.271869    0.929140
  N      1.623261    1.812416    0.296812
  H      4.111456   -2.476163   -2.310932
  H     -2.865366   -3.955591   -0.257254
  N      1.355510   -0.338589    1.698967
  N      1.417199   -0.637139   -1.488133
  H      2.624775    4.782472   -0.925018
  H      1.592966   -2.858060    3.917176
  N     -0.755243    0.756562   -1.544350
  N     -0.557862   -1.649274    0.563749
  Os     0.299200    0.202337    0.075601
  C      3.569801   -1.467391    5.147958
  C      2.959595   -2.188110    6.184734
  C      4.924357   -1.126632    5.276540
  C      3.672160   -2.554471    7.315061
  C      5.650154   -1.496337    6.397526
  C      5.018088   -2.208414    7.414561
  H      1.901838   -2.431017    6.135273
  H      5.437013   -0.603186    4.474349
  H      3.187620   -3.095353    8.120482
  H      6.702020   -1.245394    6.480079
  C     -2.950325    1.982468   -4.971924
  C     -2.289640    2.307311   -6.165766
  C     -4.349166    2.075152   -4.933523
  C     -2.997627    2.718251   -7.283809
  C     -5.068884    2.473572   -6.048695
  C     -4.387127    2.797174   -7.219854
  H     -1.204482    2.284538   -6.215679
  H     -4.892820    1.790895   -4.036761
  H     -2.478078    2.987048   -8.196982
  H     -6.151705    2.523910   -6.016716
  Br     5.998573   -2.711265    8.952105
  Br    -5.360658    3.352648   -8.743952

 Total Charge           Charge          ....    2
 Multiplicity           Mult            ....    1
 Number of Electrons    NEL             ....  406
 Basis Dimension        Dim             ....  908

ORBITAL ENERGIES
----------------

  NO   OCC          E(Eh)            E(eV)
   0   2.0000    -482.172244    -13120.5738
   1   2.0000    -482.172206    -13120.5728
   2   2.0000     -62.282794     -1694.8010
   3   2.0000     -62.282757     -1694.8000
   4   2.0000     -56.078596     -1525.9762
   5   2.0000     -56.078558     -1525.9751
   6   2.0000     -56.076337     -1525.9147
   7   2.0000     -56.076301     -1525.9137
   8   2.0000     -56.076301     -1525.9137
   9   2.0000     -56.076263     -1525.9127
  10   2.0000     -14.258659      -387.9978
  11   2.0000     -14.258601      -387.9963
  12   2.0000     -14.258544      -387.9947
  13   2.0000     -14.258504      -387.9936
  14   2.0000     -14.255791      -387.9198
  15   2.0000     -14.255716      -387.9177
  16   2.0000     -10.136823      -275.8370
  17   2.0000     -10.136794      -275.8362
  18   2.0000     -10.136783      -275.8359
  19   2.0000     -10.136744      -275.8348
  20   2.0000     -10.134894      -275.7845
  21   2.0000     -10.134832      -275.7828
  22   2.0000     -10.134820      -275.7825
  23   2.0000     -10.134768      -275.7811
  24   2.0000     -10.121074      -275.4084
  25   2.0000     -10.121033      -275.4073
  26   2.0000     -10.121017      -275.4069
  27   2.0000     -10.120987      -275.4060
  28   2.0000     -10.119249      -275.3588
  29   2.0000     -10.119185      -275.3570
  30   2.0000     -10.102632      -274.9066
  31   2.0000     -10.102631      -274.9066
  32   2.0000     -10.093050      -274.6458
  33   2.0000     -10.092991      -274.6442
  34   2.0000     -10.092983      -274.6440
  35   2.0000     -10.092956      -274.6433
  36   2.0000     -10.091708      -274.6093
  37   2.0000     -10.091698      -274.6091
  38   2.0000     -10.091680      -274.6086
  39   2.0000     -10.091674      -274.6084
  40   2.0000     -10.091323      -274.5988
  41   2.0000     -10.091312      -274.5986
  42   2.0000     -10.091303      -274.5983
  43   2.0000     -10.091283      -274.5978
  44   2.0000     -10.086150      -274.4581
  45   2.0000     -10.086140      -274.4578
  46   2.0000     -10.086125      -274.4574
  47   2.0000     -10.086108      -274.4570
  48   2.0000     -10.085098      -274.4295
  49   2.0000     -10.085077      -274.4289
  50   2.0000     -10.075669      -274.1729
  51   2.0000     -10.075625      -274.1717
  52   2.0000     -10.075582      -274.1705
  53   2.0000     -10.075516      -274.1687
  54   2.0000     -10.075307      -274.1631
  55   2.0000     -10.075261      -274.1618
  56   2.0000     -10.075222      -274.1607
  57   2.0000     -10.075154      -274.1589
  58   2.0000      -8.640812      -235.1285
  59   2.0000      -8.640775      -235.1274
  60   2.0000      -6.450948      -175.5392
  61   2.0000      -6.450910      -175.5382
  62   2.0000      -6.437521      -175.1738
  63   2.0000      -6.437486      -175.1729
  64   2.0000      -6.436784      -175.1538
  65   2.0000      -6.436743      -175.1527
  66   2.0000      -3.428444       -93.2927
  67   2.0000      -2.548102       -69.3374
  68   2.0000      -2.548074       -69.3366
  69   2.0000      -2.544789       -69.2472
  70   2.0000      -2.544746       -69.2461
  71   2.0000      -2.544305       -69.2341
  72   2.0000      -2.544262       -69.2329
  73   2.0000      -2.534312       -68.9621
  74   2.0000      -2.534304       -68.9619
  75   2.0000      -2.534276       -68.9611
  76   2.0000      -2.534270       -68.9610
  77   2.0000      -1.873118       -50.9701
  78   2.0000      -1.869791       -50.8796
  79   2.0000      -1.869516       -50.8721
  80   2.0000      -0.982795       -26.7432
  81   2.0000      -0.975275       -26.5386
  82   2.0000      -0.955489       -26.0002
  83   2.0000      -0.955435       -25.9987
  84   2.0000      -0.941223       -25.6120
  85   2.0000      -0.939495       -25.5650
  86   2.0000      -0.857497       -23.3337
  87   2.0000      -0.857319       -23.3288
  88   2.0000      -0.820104       -22.3162
  89   2.0000      -0.818431       -22.2706
  90   2.0000      -0.812253       -22.1025
  91   2.0000      -0.812238       -22.1021
  92   2.0000      -0.800951       -21.7950
  93   2.0000      -0.799150       -21.7460
  94   2.0000      -0.798972       -21.7411
  95   2.0000      -0.798955       -21.7407
  96   2.0000      -0.776261       -21.1231
  97   2.0000      -0.775372       -21.0989
  98   2.0000      -0.768798       -20.9200
  99   2.0000      -0.768682       -20.9169
 100   2.0000      -0.736766       -20.0484
 101   2.0000      -0.736756       -20.0482
 102   2.0000      -0.731155       -19.8957
 103   2.0000      -0.731097       -19.8942
 104   2.0000      -0.710380       -19.3304
 105   2.0000      -0.709115       -19.2960
 106   2.0000      -0.670495       -18.2451
 107   2.0000      -0.670482       -18.2447
 108   2.0000      -0.656875       -17.8745
 109   2.0000      -0.655241       -17.8300
 110   2.0000      -0.637700       -17.3527
 111   2.0000      -0.636278       -17.3140
 112   2.0000      -0.629041       -17.1171
 113   2.0000      -0.629028       -17.1167
 114   2.0000      -0.613096       -16.6832
 115   2.0000      -0.610622       -16.6159
 116   2.0000      -0.605853       -16.4861
 117   2.0000      -0.605830       -16.4855
 118   2.0000      -0.591878       -16.1058
 119   2.0000      -0.591706       -16.1011
 120   2.0000      -0.572546       -15.5798
 121   2.0000      -0.570461       -15.5230
 122   2.0000      -0.557307       -15.1651
 123   2.0000      -0.546278       -14.8650
 124   2.0000      -0.520357       -14.1596
 125   2.0000      -0.520304       -14.1582
 126   2.0000      -0.516253       -14.0480
 127   2.0000      -0.516215       -14.0469
 128   2.0000      -0.508743       -13.8436
 129   2.0000      -0.507771       -13.8172
 130   2.0000      -0.498551       -13.5663
 131   2.0000      -0.488994       -13.3062
 132   2.0000      -0.483328       -13.1520
 133   2.0000      -0.477510       -12.9937
 134   2.0000      -0.477288       -12.9877
 135   2.0000      -0.475494       -12.9389
 136   2.0000      -0.475165       -12.9299
 137   2.0000      -0.474491       -12.9116
 138   2.0000      -0.461890       -12.5687
 139   2.0000      -0.461747       -12.5648
 140   2.0000      -0.455306       -12.3895
 141   2.0000      -0.453148       -12.3308
 142   2.0000      -0.446709       -12.1556
 143   2.0000      -0.446030       -12.1371
 144   2.0000      -0.445033       -12.1100
 145   2.0000      -0.443479       -12.0677
 146   2.0000      -0.441187       -12.0053
 147   2.0000      -0.440847       -11.9961
 148   2.0000      -0.436015       -11.8646
 149   2.0000      -0.434818       -11.8320
 150   2.0000      -0.434395       -11.8205
 151   2.0000      -0.432580       -11.7711
 152   2.0000      -0.432183       -11.7603
 153   2.0000      -0.423848       -11.5335
 154   2.0000      -0.419754       -11.4221
 155   2.0000      -0.413706       -11.2575
 156   2.0000      -0.412614       -11.2278
 157   2.0000      -0.411541       -11.1986
 158   2.0000      -0.410821       -11.1790
 159   2.0000      -0.406397       -11.0586
 160   2.0000      -0.403130       -10.9697
 161   2.0000      -0.403098       -10.9689
 162   2.0000      -0.385643       -10.4939
 163   2.0000      -0.383866       -10.4455
 164   2.0000      -0.383589       -10.4380
 165   2.0000      -0.377085       -10.2610
 166   2.0000      -0.376889       -10.2557
 167   2.0000      -0.373771       -10.1708
 168   2.0000      -0.368764       -10.0346
 169   2.0000      -0.365950        -9.9580
 170   2.0000      -0.365932        -9.9575
 171   2.0000      -0.353602        -9.6220
 172   2.0000      -0.353415        -9.6169
 173   2.0000      -0.349105        -9.4996
 174   2.0000      -0.343301        -9.3417
 175   2.0000      -0.341229        -9.2853
 176   2.0000      -0.341106        -9.2820
 177   2.0000      -0.332144        -9.0381
 178   2.0000      -0.331166        -9.0115
 179   2.0000      -0.330561        -8.9950
 180   2.0000      -0.327373        -8.9083
 181   2.0000      -0.326035        -8.8719
 182   2.0000      -0.324991        -8.8434
 183   2.0000      -0.324067        -8.8183
 184   2.0000      -0.323887        -8.8134
 185   2.0000      -0.310977        -8.4621
 186   2.0000      -0.310716        -8.4550
 187   2.0000      -0.304088        -8.2746
 188   2.0000      -0.295502        -8.0410
 189   2.0000      -0.295306        -8.0357
 190   2.0000      -0.283973        -7.7273
 191   2.0000      -0.283868        -7.7245
 192   2.0000      -0.276366        -7.5203
 193   2.0000      -0.276294        -7.5183
 194   2.0000      -0.263125        -7.1600
 195   2.0000      -0.263055        -7.1581
 196   2.0000      -0.254949        -6.9375
 197   2.0000      -0.253155        -6.8887
 198   2.0000      -0.239934        -6.5289
 199   2.0000      -0.239716        -6.5230
 200   2.0000      -0.205246        -5.5850
 201   2.0000      -0.203421        -5.5354
 202   2.0000      -0.203350        -5.5334
 203   0.0000      -0.125061        -3.4031
 204   0.0000      -0.124694        -3.3931
 205   0.0000      -0.120000        -3.2654
 206   0.0000      -0.114755        -3.1226
 207   0.0000      -0.089791        -2.4433

MULLIKEN ATOMIC CHARGES
-----------------------
   0 C :    0.147362
   1 C :   -0.028841
   2 C :    0.066210
   3 C :   -0.059784
   4 H :    0.062642
   5 H :    0.067185
   6 H :    0.069022
   7 H :    0.101148
   8 H :    0.100606
   9 H :    0.067342
  10 H :    0.062598
  11 H :    0.055309
  12 H :    0.067313
  13 H :    0.101469
  14 C :    0.179468
  15 C :    0.178925
  16 C :   -0.059363
  17 C :    0.066416
  18 C :   -0.028865
  19 C :    0.147551
  20 C :    0.148196
  21 C :   -0.029345
  22 C :    0.066320
  23 C :   -0.059541
  24 C :    0.178429
  25 C :    0.208292
  26 C :   -0.078051
  27 C :    0.106434
  28 C :   -0.077614
  29 C :    0.205789
  30 H :    0.062712
  31 C :    0.206159
  32 C :   -0.076480
  33 C :    0.103516
  34 C :    0.178810
  35 C :   -0.076006
  36 C :    0.205684
  37 C :   -0.059227
  38 C :    0.066149
  39 C :   -0.028613
  40 C :    0.147149
  41 H :    0.101659
  42 H :    0.067331
  43 H :    0.062667
  44 H :    0.055399
  45 H :    0.055238
  46 N :   -0.355261
  47 N :   -0.354681
  48 H :    0.068954
  49 H :    0.068977
  50 N :   -0.387237
  51 N :   -0.355473
  52 H :    0.069053
  53 H :    0.054920
  54 N :   -0.386559
  55 N :   -0.355527
  56 Os:    0.735673
  57 C :    0.016130
  58 C :   -0.033463
  59 C :   -0.033011
  60 C :    0.005931
  61 C :    0.005563
  62 C :   -0.056968
  63 H :    0.046792
  64 H :    0.046863
  65 H :    0.044492
  66 H :    0.044495
  67 C :    0.015718
  68 C :   -0.032185
  69 C :   -0.032754
  70 C :    0.005267
  71 C :    0.005320
  72 C :   -0.056720
  73 H :    0.046726
  74 H :    0.046683
  75 H :    0.044534
  76 H :    0.044588
  77 Br:   -0.040708
  78 Br:   -0.040895
Sum of atomic charges:    2.0000000

LOEWDIN ATOMIC CHARGES
----------------------
   0 C :    0.072091
   1 C :   -0.010591
   2 C :    0.025866
   3 C :    0.001860
   4 H :    0.059327
   5 H :    0.056949
   6 H :    0.059363
   7 H :    0.054491
   8 H :    0.054214
   9 H :    0.057041
  10 H :    0.059324
  11 H :    0.055952
  12 H :    0.057031
  13 H :    0.054617
  14 C :    0.042406
  15 C :    0.042548
  16 C :    0.001941
  17 C :    0.025809
  18 C :   -0.010421
  19 C :    0.071756
  20 C :    0.071753
  21 C :   -0.010507
  22 C :    0.025763
  23 C :    0.001865
  24 C :    0.042611
  25 C :    0.033030
  26 C :    0.008361
  27 C :    0.002472
  28 C :    0.008344
  29 C :    0.032578
  30 H :    0.059418
  31 C :    0.032705
  32 C :    0.008367
  33 C :    0.002230
  34 C :    0.042354
  35 C :    0.008546
  36 C :    0.032626
  37 C :    0.001920
  38 C :    0.025806
  39 C :   -0.010556
  40 C :    0.071908
  41 H :    0.054716
  42 H :    0.057034
  43 H :    0.059346
  44 H :    0.056078
  45 H :    0.056087
  46 N :    0.043973
  47 N :    0.044212
  48 H :    0.059330
  49 H :    0.059332
  50 N :    0.053154
  51 N :    0.043666
  52 H :    0.059355
  53 H :    0.055797
  54 N :    0.053081
  55 N :    0.043661
  56 Os:   -0.228193
  57 C :   -0.034622
  58 C :   -0.005453
  59 C :   -0.005211
  60 C :   -0.032920
  61 C :   -0.032961
  62 C :   -0.121957
  63 H :    0.047845
  64 H :    0.047940
  65 H :    0.047965
  66 H :    0.048000
  67 C :   -0.034526
  68 C :   -0.005223
  69 C :   -0.005418
  70 C :   -0.033088
  71 C :   -0.032996
  72 C :   -0.121988
  73 H :    0.047898
  74 H :    0.047852
  75 H :    0.047928
  76 H :    0.047985
  77 Br:    0.094687
  78 Br:    0.094466

  Mayer bond orders larger than 0.100000
B(  0-C ,  1-C ) :   1.4153 B(  0-C , 41-H ) :   0.9467 B(  0-C , 55-N ) :   1.3073
B(  1-C ,  2-C ) :   1.3426 B(  1-C , 49-H ) :   0.9775 B(  2-C ,  3-C ) :   1.3794
B(  2-C , 42-H ) :   0.9781 B(  3-C , 14-C ) :   1.4083 B(  3-C , 43-H ) :   0.9673
B(  4-H , 16-C ) :   0.9672 B(  5-H , 17-C ) :   0.9782 B(  6-H , 18-C ) :   0.9774
B(  7-H , 19-C ) :   0.9467 B(  8-H , 20-C ) :   0.9466 B(  9-H , 22-C ) :   0.9781
B( 10-H , 23-C ) :   0.9672 B( 11-H , 26-C ) :   0.9586 B( 12-H , 38-C ) :   0.9781
B( 13-H , 40-C ) :   0.9467 B( 14-C , 29-C ) :   1.0335 B( 14-C , 55-N ) :   1.2087
B( 15-C , 16-C ) :   1.4093 B( 15-C , 31-C ) :   1.0332 B( 15-C , 46-N ) :   1.2085
B( 16-C , 17-C ) :   1.3786 B( 17-C , 18-C ) :   1.3426 B( 18-C , 19-C ) :   1.4162
B( 19-C , 46-N ) :   1.3071 B( 20-C , 21-C ) :   1.4166 B( 20-C , 47-N ) :   1.3068
B( 21-C , 22-C ) :   1.3427 B( 21-C , 52-H ) :   0.9774 B( 22-C , 23-C ) :   1.3791
B( 23-C , 24-C ) :   1.4088 B( 24-C , 25-C ) :   1.0331 B( 24-C , 47-N ) :   1.2094
B( 25-C , 26-C ) :   1.4135 B( 25-C , 50-N ) :   1.1893 B( 26-C , 27-C ) :   1.3222
B( 27-C , 28-C ) :   1.3224 B( 27-C , 57-C ) :   1.0129 B( 28-C , 29-C ) :   1.4130
B( 28-C , 53-H ) :   0.9586 B( 29-C , 50-N ) :   1.1905 B( 30-H , 37-C ) :   0.9674
B( 31-C , 32-C ) :   1.4129 B( 31-C , 54-N ) :   1.1899 B( 32-C , 33-C ) :   1.3228
B( 32-C , 44-H ) :   0.9588 B( 33-C , 35-C ) :   1.3227 B( 33-C , 67-C ) :   1.0120
B( 34-C , 36-C ) :   1.0333 B( 34-C , 37-C ) :   1.4087 B( 34-C , 51-N ) :   1.2088
B( 35-C , 36-C ) :   1.4128 B( 35-C , 45-H ) :   0.9590 B( 36-C , 54-N ) :   1.1902
B( 37-C , 38-C ) :   1.3789 B( 38-C , 39-C ) :   1.3427 B( 39-C , 40-C ) :   1.4154
B( 39-C , 48-H ) :   0.9775 B( 40-C , 51-N ) :   1.3073 B( 46-N , 56-Os) :   0.5849
B( 47-N , 56-Os) :   0.5847 B( 50-N , 56-Os) :   0.6752 B( 51-N , 56-Os) :   0.5839
B( 54-N , 56-Os) :   0.6754 B( 55-N , 56-Os) :   0.5837 B( 57-C , 58-C ) :   1.3368
B( 57-C , 59-C ) :   1.3366 B( 58-C , 60-C ) :   1.3957 B( 58-C , 63-H ) :   0.9877
B( 59-C , 61-C ) :   1.3955 B( 59-C , 64-H ) :   0.9878 B( 60-C , 62-C ) :   1.3550
B( 60-C , 65-H ) :   0.9910 B( 61-C , 62-C ) :   1.3551 B( 61-C , 66-H ) :   0.9910
B( 62-C , 77-Br) :   0.9989 B( 67-C , 68-C ) :   1.3372 B( 67-C , 69-C ) :   1.3373
B( 68-C , 70-C ) :   1.3956 B( 68-C , 73-H ) :   0.9878 B( 69-C , 71-C ) :   1.3953
B( 69-C , 74-H ) :   0.9879 B( 70-C , 72-C ) :   1.3552 B( 70-C , 75-H ) :   0.9910
B( 71-C , 72-C ) :   1.3553 B( 71-C , 76-H ) :   0.9911 B( 72-C , 78-Br) :   0.9987

-----------------------------------------------------------------------------
         ABSORPTION SPECTRUM VIA TRANSITION ELECTRIC DIPOLE MOMENTS
-----------------------------------------------------------------------------
State   Energy    Wavelength  fosc         T2        TX        TY        TZ
        (cm-1)      (nm)                 (au**2)    (au)      (au)      (au)
-----------------------------------------------------------------------------
   1   17208.9    581.1   0.000308881   0.00591  -0.00881   0.01511  -0.07485
   2   17805.7    561.6   0.000041511   0.00077   0.00882  -0.02432  -0.00992
   3   18126.7    551.7   0.009436726   0.17139   0.01391  -0.38355  -0.15518
   4   18203.3    549.4   0.008272003   0.14960   0.34306   0.07652  -0.16143
   5   18659.0    535.9   0.015812421   0.27899  -0.32106  -0.41890  -0.02077
   6   18674.9    535.5   0.015846489   0.27935   0.36245  -0.24583  -0.29588
   7   18776.6    532.6   0.036886846   0.64674   0.42127  -0.22730   0.64623
   8   19756.5    506.2   0.000427444   0.00712   0.01759   0.08230   0.00635
   9   20235.1    494.2   0.043445350   0.70683   0.67159   0.47333  -0.17819
  10   20243.6    494.0   0.044562274   0.72470  -0.33924   0.65503   0.42491
  11   20799.5    480.8   0.777958616  12.31342   1.81107  -0.97486   2.84307
  12   23796.5    420.2   0.000013479   0.00019   0.00321   0.01313   0.00192
  13   25056.4    399.1   0.000874180   0.01149   0.09784   0.02412   0.03648
  14   25069.0    398.9   0.000357377   0.00469  -0.02335   0.05462   0.03412
  15   25095.3    398.5   0.000100269   0.00132  -0.03555  -0.00368  -0.00616
  16   25101.7    398.4   0.000209810   0.00275  -0.03646   0.03329   0.01772
  17   25223.3    396.5   0.000024057   0.00031   0.01271  -0.00517   0.01122
  18   25277.0    395.6   0.000000911   0.00001   0.00052  -0.00243  -0.00239
  19   25814.5    387.4   0.176125030   2.24612   0.75644  -0.43382   1.21890
  20   25867.5    386.6   0.443837002   5.64865  -1.22087   0.66495  -1.92768
  21   26212.9    381.5   0.001072093   0.01346  -0.04549  -0.09712  -0.04431
  22   26339.1    379.7   0.038967797   0.48706   0.35131   0.60244   0.02647
  23   26354.1    379.4   0.050500584   0.63085   0.57698  -0.30537  -0.45243
  24   26372.2    379.2   0.022988138   0.28697  -0.11551  -0.51146  -0.10968
  25   26480.8    377.6   0.035625095   0.44289  -0.59954  -0.14260   0.25123
  26   26517.9    377.1   0.023179044   0.28776   0.06246  -0.47948  -0.23228
  27   27233.5    367.2   0.013931588   0.16841  -0.21495   0.11357  -0.33062
  28   27640.6    361.8   0.002258532   0.02690   0.01470  -0.15246  -0.05866
  29   27682.8    361.2   0.002539350   0.03020  -0.14353  -0.04925   0.08468
  30   28268.4    353.8   0.000038099   0.00044   0.01049  -0.00619   0.01718

FINAL SINGLE POINT ENERGY     -7181.650338896185

DIPOLE MOMENT
-------------
                                X             Y             Z
Electronic contribution:     -0.34410      -2.83451      -0.78180
Nuclear contribution   :      0.31492       2.69186       0.76091
                        -----------------------------------------
Total Dipole Moment    :     -0.02917      -0.14264      -0.02089
                        -----------------------------------------
Magnitude (a.u.)       :      0.14709
Magnitude (Debye)      :      0.37386

Rotational constants in cm-1:     0.003962     0.000515     0.000513
Rotational constants in MHz :   118.767809    15.436943    15.369586

                             ****ORCA TERMINATED NORMALLY****
TOTAL RUN TIME: 0 days 0 hours 5 minutes 7 seconds 163 msec
